data_188887-ICSD
#?2016 by Fachinformationszentrum Karlsruhe, and the U.S. Secretary of 
#Commerce on behalf of the United States.  All rights reserved.
_database_code_ICSD                188887
_audit_creation_date               2014/02/01
_chemical_name_systematic
;
Decalithium Dodecathiogermanodiphosphate
;
_chemical_formula_structural       'Li10 Ge P2 S12'
_chemical_formula_sum              'Ge1 Li10 P2 S12'
_publ_section_title
;
Single-crystal X - ray structure analysis of the superionic conductor 
Li10 Ge P2 S12
;
loop_
_citation_id
_citation_journal_abbrev
_citation_year
_citation_journal_volume
_citation_journal_issue
_citation_page_first
_citation_page_last
_citation_journal_id_ASTM
primary 'Physical Chemistry Chemical Physics' 2013 15 28 11620 11622 PPCPFQ
_publ_author_name
;
Kuhn, Alexander;Koehler, Juergen;Lotsch, Bettina V.
;
_cell_length_a                     8.719(3)
_cell_length_b                     8.719(3)
_cell_length_c                     12.639(4)
_cell_angle_alpha                  90.
_cell_angle_beta                   90.
_cell_angle_gamma                  90.
_cell_volume                       960.83
_cell_formula_units_Z              2
_symmetry_space_group_name_H-M     'P 42/n m c S'
_symmetry_Int_Tables_number        137
_refine_ls_R_factor_all            .0455
loop_
_symmetry_equiv_pos_site_id
_symmetry_equiv_pos_as_xyz
  1	'-y+.5, -x+.5, z+.5'
  2	'y+.5, x+.5, z+.5'
  3	'-y, -x, -z'
  4	'y, x, -z'
  5	'y+.5, -x+.5, z+.5'
  6	'-y+.5, x+.5, z+.5'
  7	'y, -x, -z'
  8	'-y, x, -z'
  9	'x+.5, -y+.5, -z+.5'
 10	'-x+.5, y+.5, -z+.5'
 11	'x, -y, z'
 12	'-x, y, z'
 13	'-x+.5, -y+.5, -z+.5'
 14	'x+.5, y+.5, -z+.5'
 15	'-x, -y, z'
 16	'x, y, z'
loop_
_atom_type_symbol
_atom_type_oxidation_number
Ge4+	4
Li1+	1
P5+	5
S2-	-2
loop_
_atom_site_label
_atom_site_type_symbol
_atom_site_symmetry_multiplicity
_atom_site_Wyckoff_symbol
_atom_site_fract_x
_atom_site_fract_y
_atom_site_fract_z
_atom_site_occupancy
_atom_site_attached_hydrogens
_atom_site_U_iso_or_equiv
Li1 Li1+ 16 h 0.267(3) 0.273(3) 0.194(2) 0.466(18) 0 0.114(11) 
Li2 Li1+ 4 d 0.0000 0.5000 0.9454(12) 0.86(6) 0 0.056(6) 
Li3 Li1+ 8 f 0.248(2) 0.248(2) 0.0000 0.74(5) 0 0.18(2) 
Li4 Li1+ 4 c 0.0000 0.0000 0.251(2) 0.81(7) 0 0.108(14) 
Ge1 Ge4+ 4 d 0.0000 0.5000 0.69154(7) 0.50 0 0.0286(3) 
P1 P5+ 4 d 0.0000 0.5000 0.69154(7) 0.50 0 0.0286(3) 
P2 P5+ 2 b 0.0000 0.0000 0.5000 1 0 0.0272(4) 
S1 S2- 8 g 0.0000 0.18857(13) 0.40707(10) 1 0 0.0466(4) 
S2 S2- 8 g 0.0000 0.29557(14) 0.09727(9) 1 0 0.0399(3) 
S3 S2- 8 g 0.0000 0.69901(13) 0.79168(9) 1 0 0.0373(3) 

loop_
_atom_site_aniso_label
_atom_site_aniso_type_symbol
_atom_site_aniso_U_11
_atom_site_aniso_U_22
_atom_site_aniso_U_33
_atom_site_aniso_U_12
_atom_site_aniso_U_13
_atom_site_aniso_U_23
Li1 Li1+ 0.092(16) 0.054(11) 0.20(3) 0.028(10) 0.048(18) -0.013(15)
Li2 Li1+ 0.058(11) 0.070(12) 0.041(9) 0.000 0.000 0.000
Li3 Li1+ 0.104(14) 0.104(14) 0.33(5) -0.050(15) 0.11(2) -0.11(2)
Li4 Li1+ 0.064(16) 0.18(3) 0.079(19) 0.000 0.000 0.000
Ge1 Ge4+ 0.0318(4) 0.0272(4) 0.0267(4) 0.000 0.000 0.000
P1 P5+ 0.0318(4) 0.0272(4) 0.0267(4) 0.000 0.000 0.000
P2 P5+ 0.0261(5) 0.0261(5) 0.0295(9) 0.000 0.000 0.000
S1 S2- 0.0634(8) 0.0294(5) 0.0471(7) 0.000 0.000 0.0055(5)
S2 S2- 0.0377(6) 0.0437(6) 0.0384(6) 0.000 0.000 -0.0029(5)
S3 S2- 0.0388(6) 0.0329(5) 0.0403(6) 0.000 0.000 0.0002(4)
#End of data_188887-ICSD



